252
	Energy:     193.1340377
C          3.51743      -12.84768       -7.37791
C          3.83354      -11.74006       -6.38720
C          4.24278      -10.46079       -7.11030
C          4.49518       -9.32085       -6.12608
C          4.64995       -7.99978       -6.87783
C          4.84454       -6.81020       -5.94961
C          3.62049       -6.25162       -5.25040
C          3.67010       -5.08773       -4.48785
S          2.17852       -4.67411       -3.78816
C          1.41235       -6.02217       -4.50806
C          2.28616       -6.77393       -5.26425
C          4.85036       -4.28755       -4.34354
C          5.36796       -3.46356       -5.31958
C          6.78914       -3.30987       -5.19032
C          7.69834       -2.74558       -6.26056
C          7.11168       -2.81302       -7.67780
C          8.14591       -2.67909       -8.79638
C          9.19277       -3.79520       -8.91564
C          8.68933       -5.15030       -9.42516
C          8.00268       -6.01648       -8.38140
C          7.21481       -3.81722       -3.96789
S          5.94113       -4.51095       -3.05854
C          8.56271       -3.87442       -3.48432
C          9.56183       -4.70466       -3.93557
C         10.84518       -4.40767       -3.36180
C         12.13343       -5.09840       -3.74701
C         12.09968       -6.07089       -4.92460
C         13.41742       -6.84317       -5.09889
C         14.58784       -6.09396       -5.75085
C         15.17042       -4.94525       -4.92732
C         16.60771       -4.63393       -5.31392
C         10.74487       -3.35804       -2.43897
S          9.11318       -2.82401       -2.27742
C         11.78584       -2.67259       -1.68800
C         11.74179       -1.38783       -1.17557
C         12.97639       -0.94459       -0.58534
C         13.19858        0.42405        0.01204
C         11.99108        1.35052        0.14040
C         12.21969        2.50597        1.12766
C         13.18345        3.61942        0.69870
C         14.65261        3.20748        0.59480
C         15.59237        4.39135        0.75838
C         13.95853       -1.92687       -0.71996
S         13.28375       -3.38860       -1.29747
C         15.38292       -1.86707       -0.44848
C         16.40005       -2.51184       -1.13336
C         17.72289       -2.17851       -0.66883
C         19.01553       -2.72992       -1.22730
C         18.94335       -3.74927       -2.36066
C         20.24967       -4.54179       -2.54108
C         21.43315       -3.81432       -3.19319
C         22.02430       -2.66317       -2.37904
C         23.46248       -2.36274       -2.77293
C         17.65037       -1.22107        0.34462
S         16.03309       -0.95522        0.83119
C         18.70427       -0.47413        1.00315
C         18.63465        0.82134        1.48541
C         19.86781        1.30544        2.04730
C         20.06506        2.67156        2.66301
C         18.85931        3.60617        2.73609
C         19.04574        4.75996        3.73436
C         19.98467        5.90075        3.32259
C         21.45920        5.51790        3.19523
C         22.37859        6.71824        3.35735
C         20.87465        0.35129        1.89307
S         20.24167       -1.12888        1.31431
C         22.29787        0.44160        2.15183
C         23.31409       -0.19312        1.45932
C         24.63526        0.13475        1.92489
C         25.91855       -0.42731        1.35973
C         25.81705       -1.44893        0.22889
C         27.11320       -2.24693        0.01574
C         28.28451       -1.51924       -0.65616
C         28.89066       -0.37258        0.15305
C         30.32890       -0.08486       -0.24755
C         24.56609        1.09236        2.93767
S         22.94718        1.36507        3.42192
C         25.62131        1.83907        3.59437
C         25.54391        3.12954        4.08585
C         26.77558        3.62360        4.64200
C         26.95093        4.99177        5.25934
C         25.72202        5.89767        5.33539
C         25.88292        7.06721        6.31802
C         26.80944        8.21460        5.89794
C         28.29205        7.85162        5.80870
C         29.19215        9.06173        6.00177
C         27.79356        2.68282        4.47493
S         27.16772        1.19881        3.88778
C         29.22118        2.78574        4.71894
C         30.23112        2.12590        4.04136
C         31.55951        2.47030        4.47623
C         32.82902        1.88466        3.90731
C         32.69900        0.84632        2.79511
C         33.99106        0.05408        2.54503
C         35.16537        0.80887        1.90806
C         35.82021        1.86181        2.80471
C         37.28277        2.09007        2.45759
C         31.50938        3.46091        5.45773
S         29.88938        3.76182        5.93949
C         32.57457        4.21979        6.09432
C         32.48247        5.51027        6.59777
C         33.69633        5.99781        7.18364
C         33.91988        7.33527        7.83383
C         32.67724        8.20469        8.01974
C         32.87080        9.38109        8.98295
C         33.77560       10.52319        8.50727
C         35.26438       10.17540        8.45096
C         36.14752       11.38372        8.71858
C         34.69488        5.05231        7.05931
S         34.15550        3.60896        6.34177
H          3.18475      -13.74576       -6.84939
H          2.72044      -12.54222       -8.06401
H          4.40040      -13.10511       -7.97117
H          4.63481      -12.06496       -5.71392
H          2.94714      -11.54888       -5.77091
H          3.44961      -10.17250       -7.81085
H          5.14775      -10.63868       -7.70454
H          5.40339       -9.52881       -5.54626
H          3.67026       -9.25912       -5.40981
H          3.79715       -7.82648       -7.54390
H          5.53739       -8.07819       -7.52017
H          5.60313       -7.05773       -5.19528
H          5.26538       -6.00438       -6.56360
H          0.35797       -6.19906       -4.34689
H          1.97181       -7.66158       -5.79907
H          4.79964       -3.18312       -6.19881
H          7.94561       -1.70709       -6.01097
H          8.63575       -3.30819       -6.23742
H          6.53843       -3.73027       -7.82643
H          6.38583       -1.99591       -7.78553
H          7.61267       -2.59674       -9.75190
H          8.67570       -1.72786       -8.66018
H          9.93506       -3.44360       -9.64522
H          9.74403       -3.92547       -7.97900
H          9.56267       -5.70897       -9.78569
H          8.03014       -5.01607      -10.29039
H          7.97544       -7.05804       -8.71954
H          6.96624       -5.71274       -8.22916
H          8.52592       -5.98704       -7.42105
H          9.38636       -5.45873       -4.69423
H         12.84016       -4.30419       -3.98956
H         12.50086       -5.64332       -2.86990
H         11.31320       -6.81516       -4.74513
H         11.83746       -5.55078       -5.85325
H         13.20235       -7.71114       -5.73607
H         13.73942       -7.25243       -4.13310
H         15.37874       -6.83196       -5.93709
H         14.28135       -5.71628       -6.73390
H         14.57841       -4.03986       -5.09600
H         15.13835       -5.17768       -3.85708
H         16.93984       -3.72313       -4.80719
H         17.27526       -5.44941       -5.01743
H         16.70633       -4.47736       -6.39207
H         10.86464       -0.75719       -1.25872
H         13.59481        0.28206        1.02226
H         13.95876        0.91157       -0.60287
H         11.69991        1.74084       -0.84164
H         11.13480        0.77814        0.51992
H         11.24391        2.97603        1.30776
H         12.54021        2.10295        2.09687
H         13.09420        4.42388        1.44014
H         12.85517        4.04335       -0.25790
H         14.84092        2.77208       -0.39115
H         14.90246        2.45461        1.35032
H         16.61820        4.08505        0.53384
H         15.56791        4.76746        1.78612
H         15.32632        5.20831        0.08130
H         16.20827       -3.17961       -1.96517
H         19.60005       -1.87180       -1.56772
H         19.54581       -3.21082       -0.39807
H         18.15678       -4.48206       -2.14150
H         18.66912       -3.25509       -3.29836
H         20.01909       -5.40787       -3.17551
H         20.56718       -4.95573       -1.57551
H         22.21658       -4.56407       -3.36462
H         21.13812       -3.44564       -4.18300
H         21.43726       -1.75589       -2.55149
H         21.99409       -2.88788       -1.30732
H         23.80412       -1.45263       -2.27093
H         24.12605       -3.18169       -2.47708
H         23.55709       -2.21084       -3.85224
H         17.73087        1.41619        1.42208
H         20.41512        2.51768        3.68955
H         20.85617        3.16203        2.09113
H         18.62560        4.00078        1.74180
H         17.98060        3.04066        3.07104
H         18.05654        5.20549        3.90436
H         19.36400        4.36038        4.70561
H         19.88685        6.68791        4.08140
H         19.63949        6.33865        2.37818
H         21.64040        5.09277        2.20317
H         21.73228        4.76427        3.94190
H         23.41007        6.43087        3.13274
H         22.34839        7.09478        4.38483
H         22.09675        7.53012        2.68039
H         23.12058       -0.85994        0.62709
H         26.50514        0.42541        1.01093
H         26.45345       -0.91059        2.18464
H         25.03427       -2.17966        0.46877
H         25.51877       -0.95594       -0.70244
H         26.86438       -3.10759       -0.61925
H         27.44845       -2.66839        0.97193
H         29.06284       -2.26945       -0.84668
H         27.97026       -1.14503       -1.63802
H         28.31053        0.53954       -0.01817
H         28.86410       -0.59535        1.22529
H         30.68245        0.81892        0.25763
H         30.98530       -0.91225        0.04038
H         30.41811        0.07178       -1.32656
H         24.63400        3.71590        4.03145
H         27.31101        4.84525        6.28366
H         27.72608        5.49964        4.68101
H         25.46753        6.27416        4.33875
H         24.86107        5.31363        5.68473
H         24.88562        7.50039        6.47232
H         26.19760        6.68523        7.29739
H         26.68331        9.01646        6.63683
H         26.47570        8.62557        4.93741
H         28.50522        7.43288        4.82016
H         28.55470        7.09813        6.55914
H         30.23487        8.78437        5.81967
H         29.11760        9.44130        7.02583
H         28.92805        9.86801        5.31113
H         30.02869        1.42779        3.23755
H         33.41315        2.72589        3.52844
H         33.37296        1.41361        4.73348
H         31.92840        0.11360        3.06679
H         32.36797        1.32656        1.86794
H         33.73672       -0.77534        1.87176
H         34.32321       -0.41171        3.48150
H         35.91798        0.05832        1.63445
H         34.84056        1.27613        0.97060
H         35.30027        2.81748        2.68570
H         35.75445        1.57020        3.85841
H         37.69042        2.90180        3.06915
H         37.87362        1.19030        2.65576
H         37.40251        2.36161        1.40465
H         31.56732        6.08912        6.55124
H         34.38466        7.15783        8.81207
H         34.64729        7.86644        7.21384
H         32.33085        8.57409        7.04757
H         31.86401        7.59061        8.42876
H         31.87781        9.81186        9.16888
H         33.22430        9.01049        9.95300
H         33.62855       11.36031        9.20148
H         33.44311       10.87708        7.52370
H         35.51167        9.79042        7.45614
H         35.51136        9.39746        9.18141
H         37.20165       11.11078        8.60519
H         36.00299       11.74936        9.74031
H         35.92692       12.19840        8.02263
H         35.72461        5.13880        7.37866
