225
	Energy:     245.5062501
C          3.41490        5.87945       -7.55872
C          4.41633        4.75535       -7.35238
C          5.25855        4.97471       -6.09665
C          6.24515        3.82692       -5.89255
C          6.97675        3.95563       -4.55435
C          8.16300        2.99399       -4.44106
C          7.85206        1.51284       -4.43630
C          8.73835        0.47303       -4.73766
C         10.18718        0.46509       -4.94646
C         11.02284       -0.63833       -5.05008
C         12.42837       -0.33955       -4.90095
C         13.51870       -1.38400       -4.79745
C         13.16573       -2.83374       -5.10675
C         14.39078       -3.72126       -5.38150
C         15.42514       -3.88834       -4.25541
C         16.33077       -2.67446       -4.02484
C         17.67803       -3.05418       -3.42818
C         12.61755        1.03381       -4.72361
C         13.76175        1.77937       -4.21530
C         13.96092        3.15566       -4.14066
C         14.78370        3.51964       -3.00509
C         14.98712        4.91544       -2.47443
C         13.70252        5.64045       -2.06994
C         13.72753        6.35729       -0.70946
C         14.89595        7.31291       -0.42897
C         16.10180        6.64316        0.24308
C         16.99752        7.64656        0.95291
C         15.20519        2.36812       -2.35568
S         15.05753        1.02120       -3.37947
S         11.14534        1.87720       -4.98254
S          7.88403       -1.02646       -4.74895
C          6.55498       -0.39827       -3.86485
C          5.64880       -1.24043       -3.09531
C          4.48812       -0.93210       -2.37865
C          3.70162        0.35274       -2.45690
C          2.39197        0.37531       -1.66343
C          1.50633        1.59750       -1.93030
C          2.17419        2.95595       -1.68137
C          2.87244        3.56781       -2.90080
C          1.90311        3.99555       -3.99257
C          4.23707       -1.95229       -1.38178
C          5.26065       -2.87950       -1.30689
C          5.72247       -3.60271       -0.13637
C          6.86409       -4.38459        0.06092
C          7.79203       -4.87814       -1.02885
C          8.93395       -5.80658       -0.62567
C          9.63161       -6.47978       -1.81984
C         10.44236       -5.57180       -2.75709
C          9.68019       -4.73129       -3.78743
C          8.68753       -5.50829       -4.63609
C          7.16354       -4.45883        1.47113
C          6.33410       -3.65996        2.24974
C          6.65669       -3.06353        3.53379
C          6.13680       -1.96967        4.22876
C          4.81660       -1.26048        4.04646
C          3.61798       -2.09131        4.51027
C          2.30675       -1.30947        4.67328
C          1.89269       -0.45220        3.47122
C          2.42844        0.98524        3.53879
C          1.31081        2.00923        3.67917
C          7.17909       -1.39565        5.06922
C          8.38373       -2.07284        4.97598
C          9.73673       -1.59529        5.21662
C         10.94859       -2.28424        5.31657
C         11.09576       -3.78648        5.32100
C         12.49960       -4.37766        5.28019
C         12.53332       -5.82542        4.76288
C         11.71877       -6.86649        5.54223
C         10.21555       -6.85526        5.24369
C          9.53915       -8.15321        5.65804
C         12.05877       -1.36641        5.28261
C         11.69204       -0.08342        4.90987
C         12.53540        0.91953        4.26873
C         12.32109        2.26693        3.95453
C         11.10642        3.10130        4.32107
C         10.93181        4.42867        3.57280
C          9.84677        5.35603        4.13536
C          8.40814        4.82696        4.18148
C          8.13754        3.84207        5.32224
C          6.69896        3.90495        5.81143
C         13.39356        2.76305        3.12596
C         14.24046        1.77322        2.66362
C         15.03496        1.82326        1.45438
C         16.25222        1.25463        1.07823
C         17.18722        0.46898        1.97282
C         18.09154       -0.52686        1.22953
C         18.81074       -1.50892        2.16124
C         18.12025       -2.87108        2.30384
C         16.78094       -2.82245        3.03616
C         16.28357       -4.22032        3.36684
C         16.50872        1.49725       -0.33431
C         15.48674        2.16480       -0.96485
S         14.28487        2.62608        0.13744
S         14.03046        0.36859        3.58110
S         10.02319        0.10213        5.20317
S          8.03185       -3.63622        4.38667
S          4.92630       -3.32991        1.36794
S          6.03012       -2.90291       -2.82584
C          6.60471        0.97886       -3.92679
H          2.82355        5.69714       -8.46132
H          2.72568        5.95308       -6.71196
H          3.92314        6.84198       -7.67180
H          5.06941        4.68766       -8.23018
H          3.87645        3.80416       -7.27614
H          4.60790        5.06309       -5.22036
H          5.80908        5.91959       -6.18089
H          6.96929        3.82516       -6.71636
H          5.71041        2.87078       -5.93194
H          6.27418        3.81747       -3.72439
H          7.36578        4.97733       -4.45753
H          8.82093        3.22503       -5.28367
H          8.70593        3.22699       -3.51602
H         10.64600       -1.65299       -5.09870
H         14.33977       -1.07040       -5.45276
H         13.85756       -1.37858       -3.75838
H         12.59384       -3.25534       -4.27090
H         12.51841       -2.88433       -5.99024
H         14.00980       -4.72227       -5.62113
H         14.89749       -3.36628       -6.28684
H         16.05564       -4.74486       -4.52673
H         14.92278       -4.15875       -3.31894
H         15.84769       -1.98614       -3.32730
H         16.50457       -2.13532       -4.96235
H         18.26403       -2.15216       -3.22118
H         18.25180       -3.67416       -4.12422
H         17.55649       -3.60360       -2.48994
H         13.37028        3.87988       -4.68981
H         15.66132        4.83548       -1.62289
H         15.52106        5.50600       -3.22807
H         13.46467        6.37833       -2.84673
H         12.85243        4.94563       -2.05219
H         12.80202        6.94720       -0.65562
H         13.64707        5.62289        0.09910
H         14.52042        8.09004        0.24961
H         15.20649        7.82509       -1.34672
H         16.71542        6.12888       -0.50081
H         15.76903        5.89428        0.97091
H         17.86144        7.13356        1.38866
H         16.45980        8.14778        1.76357
H         17.36739        8.40533        0.25695
H          4.33926        1.14823       -2.05907
H          3.48952        0.56011       -3.51217
H          1.80149       -0.52163       -1.89067
H          2.61568        0.33685       -0.58891
H          0.64567        1.51922       -1.25301
H          1.09784        1.53197       -2.94283
H          1.40501        3.66233       -1.34377
H          2.89143        2.86964       -0.85605
H          3.43592        4.44997       -2.57346
H          3.60563        2.87880       -3.32564
H          2.45410        4.38329       -4.85188
H          1.29138        3.16414       -4.35067
H          1.23844        4.78699       -3.63422
H          3.48415       -1.84788       -0.61008
H          7.18463       -5.38603       -1.78572
H          8.24888       -3.98690       -1.46624
H          9.67657       -5.25518       -0.03522
H          8.54596       -6.60180        0.02310
H         10.33932       -7.20553       -1.39646
H          8.90864       -7.07486       -2.38770
H         11.12950       -6.21891       -3.31939
H         11.07938       -4.90679       -2.16107
H          9.17467       -3.89260       -3.30645
H         10.41495       -4.27632       -4.46234
H          8.26100       -4.85472       -5.40440
H          9.17407       -6.34908       -5.13992
H          7.85699       -5.89372       -4.03898
H          8.08829       -4.88886        1.84303
H          4.84608       -0.33758        4.63899
H          4.70313       -0.94273        3.00504
H          3.44240       -2.91674        3.81266
H          3.84804       -2.56578        5.47311
H          1.51526       -2.04970        4.85010
H          2.35154       -0.69638        5.58117
H          0.79646       -0.43249        3.42630
H          2.22385       -0.92825        2.54050
H          2.98997        1.20490        2.62334
H          3.12194        1.11736        4.37555
H          1.72847        3.01867        3.74928
H          0.71947        1.82384        4.58182
H          0.64088        1.97956        2.81387
H          7.07434       -0.43018        5.55220
H         10.57356       -4.16390        6.20564
H         10.60541       -4.15349        4.41702
H         13.13049       -3.79474        4.59965
H         12.96246       -4.31733        6.27194
H         13.58314       -6.14545        4.77526
H         12.22971       -5.84064        3.70788
H         12.11382       -7.85334        5.26858
H         11.88861       -6.74846        6.61859
H          9.72716       -6.04727        5.79162
H         10.03527       -6.68710        4.17613
H          8.45841       -8.07981        5.49914
H          9.91161       -8.99363        5.06467
H          9.71412       -8.36792        6.71646
H         13.09171       -1.69062        5.30273
H         10.22497        2.51403        4.06561
H         11.12106        3.27754        5.40203
H         11.86670        5.00054        3.59879
H         10.72073        4.22519        2.51456
H          9.84113        6.25443        3.50313
H         10.14398        5.69598        5.13471
H          7.75102        5.69780        4.30474
H          8.13851        4.37154        3.22099
H          8.32790        2.82174        4.97945
H          8.80344        4.03603        6.17008
H          6.53256        3.14732        6.58419
H          6.47997        4.88441        6.24861
H          5.99368        3.72209        4.99533
H         13.41515        3.76345        2.70986
H         17.81189        1.18163        2.52546
H         16.61153       -0.07908        2.71726
H         17.52846       -1.08037        0.46855
H         18.85710        0.04949        0.69340
H         19.80559       -1.70159        1.73903
H         18.97709       -1.06167        3.14869
H         18.80186       -3.53665        2.84855
H         17.97848       -3.31812        1.31184
H         16.03182       -2.31771        2.41600
H         16.88157       -2.25247        3.96653
H         15.32714       -4.16342        3.90006
H         16.99146       -4.75049        4.00618
H         16.12779       -4.81062        2.45683
H         17.37005        1.11718       -0.87170
H          5.84098        1.61360       -3.50544
